<?xml version="1.0" encoding="UTF-8"?>

<!-- generated on 2024-12-12 23:13:37 by Eclipse SUMO sumo Version 1.20.0
<configuration xmlns:xsi="http://www.w3.org/2001/XMLSchema-instance" xsi:noNamespaceSchemaLocation="http://sumo.dlr.de/xsd/sumoConfiguration.xsd">

    <input>
        <net-file value="./data\smwan1.net.xml"/>
        <route-files value="./data\smwan1.rou.xml"/>
    </input>

    <output>
        <summary-output value="./data\output/summary_rl.xml"/>
        <tripinfo-output value="./data\output/tripinfo.xml"/>
    </output>

    <time>
        <begin value="0"/>
        <end value="3600"/>
    </time>

    <report>
        <no-warnings value="True"/>
    </report>

    <traci_server>
        <remote-port value="11458"/>
    </traci_server>

    <random_number>
        <seed value="0"/>
    </random_number>

    <gui_only>
        <quit-on-end value="true"/>
        <start value="t"/>
    </gui_only>

</configuration>
-->

<tripinfos xmlns:xsi="http://www.w3.org/2001/XMLSchema-instance" xsi:noNamespaceSchemaLocation="http://sumo.dlr.de/xsd/tripinfo_file.xsd">
    <tripinfo id="flow6.0" depart="1.00" departLane="E2_0" departPos="5.10" departSpeed="0.00" departDelay="0.00" arrival="44.00" arrivalLane="-E5_0" arrivalPos="175.40" arrivalSpeed="15.42" duration="43.00" routeLength="539.70" waitingTime="0.00" waitingCount="0" stopTime="0.00" timeLoss="6.45" rerouteNo="1" devices="tripinfo_flow6.0 routing_flow6.0" vType="type1" speedFactor="1.12" vaporized=""/>
    <tripinfo id="flow1.0" depart="25.00" departLane="E5_0" departPos="5.10" departSpeed="0.00" departDelay="0.00" arrival="47.00" arrivalLane="E4_0" arrivalPos="61.38" arrivalSpeed="15.01" duration="22.00" routeLength="240.72" waitingTime="0.00" waitingCount="0" stopTime="0.00" timeLoss="5.64" rerouteNo="0" devices="tripinfo_flow1.0 routing_flow1.0" vType="type1" speedFactor="1.11" vaporized=""/>
    <tripinfo id="flow1.1" depart="31.00" departLane="E5_0" departPos="5.10" departSpeed="0.00" departDelay="5.00" arrival="54.00" arrivalLane="E4_0" arrivalPos="61.38" arrivalSpeed="15.18" duration="23.00" routeLength="240.72" waitingTime="0.00" waitingCount="0" stopTime="0.00" timeLoss="7.48" rerouteNo="0" devices="tripinfo_flow1.1 routing_flow1.1" vType="type1" speedFactor="1.18" vaporized=""/>
    <tripinfo id="flow6.1" depart="4.00" departLane="E2_0" departPos="5.10" departSpeed="0.00" departDelay="1.00" arrival="56.00" arrivalLane="-E5_0" arrivalPos="175.40" arrivalSpeed="13.79" duration="52.00" routeLength="539.70" waitingTime="5.00" waitingCount="1" stopTime="0.00" timeLoss="13.65" rerouteNo="1" devices="tripinfo_flow6.1 routing_flow6.1" vType="type1" speedFactor="1.05" vaporized=""/>
    <tripinfo id="flow1.2" depart="34.00" departLane="E5_0" departPos="5.10" departSpeed="0.00" departDelay="7.00" arrival="60.00" arrivalLane="E4_0" arrivalPos="61.38" arrivalSpeed="11.83" duration="26.00" routeLength="240.72" waitingTime="0.00" waitingCount="0" stopTime="0.00" timeLoss="5.01" rerouteNo="0" devices="tripinfo_flow1.2 routing_flow1.2" vType="type1" speedFactor="0.89" vaporized=""/>
    <tripinfo id="flow6.2" depart="7.00" departLane="E2_0" departPos="5.10" departSpeed="0.00" departDelay="0.00" arrival="61.00" arrivalLane="-E5_0" arrivalPos="175.40" arrivalSpeed="11.92" duration="54.00" routeLength="539.70" waitingTime="2.00" waitingCount="1" stopTime="0.00" timeLoss="11.84" rerouteNo="1" devices="tripinfo_flow6.2 routing_flow6.2" vType="type1" speedFactor="0.95" vaporized=""/>
    <tripinfo id="flow1.3" depart="40.00" departLane="E5_0" departPos="5.10" departSpeed="0.00" departDelay="0.00" arrival="62.00" arrivalLane="E4_0" arrivalPos="61.38" arrivalSpeed="15.40" duration="22.00" routeLength="240.72" waitingTime="0.00" waitingCount="0" stopTime="0.00" timeLoss="6.51" rerouteNo="0" devices="tripinfo_flow1.3 routing_flow1.3" vType="type1" speedFactor="1.19" vaporized=""/>
    <tripinfo id="flow6.3" depart="13.00" departLane="E2_0" departPos="5.10" departSpeed="0.00" departDelay="1.00" arrival="65.00" arrivalLane="-E5_1" arrivalPos="175.40" arrivalSpeed="16.43" duration="52.00" routeLength="539.70" waitingTime="5.00" waitingCount="1" stopTime="0.00" timeLoss="20.68" rerouteNo="1" devices="tripinfo_flow6.3 routing_flow6.3" vType="type1" speedFactor="1.27" vaporized=""/>
    <tripinfo id="flow1.4" depart="52.00" departLane="E5_0" departPos="5.10" departSpeed="0.00" departDelay="3.00" arrival="80.00" arrivalLane="E4_0" arrivalPos="61.38" arrivalSpeed="10.56" duration="28.00" routeLength="240.72" waitingTime="0.00" waitingCount="0" stopTime="0.00" timeLoss="5.66" rerouteNo="0" devices="tripinfo_flow1.4 routing_flow1.4" vType="type1" speedFactor="0.84" vaporized=""/>
    <tripinfo id="flow1.5" depart="55.00" departLane="E5_0" departPos="5.10" departSpeed="0.00" departDelay="3.00" arrival="82.00" arrivalLane="E4_0" arrivalPos="61.38" arrivalSpeed="12.02" duration="27.00" routeLength="240.72" waitingTime="0.00" waitingCount="0" stopTime="0.00" timeLoss="6.72" rerouteNo="0" devices="tripinfo_flow1.5 routing_flow1.5" vType="type1" speedFactor="0.91" vaporized=""/>
    <tripinfo id="flow6.4" depart="29.00" departLane="E2_0" departPos="5.10" departSpeed="0.00" departDelay="0.00" arrival="94.00" arrivalLane="-E5_0" arrivalPos="175.40" arrivalSpeed="12.37" duration="65.00" routeLength="539.70" waitingTime="10.00" waitingCount="2" stopTime="0.00" timeLoss="22.98" rerouteNo="1" devices="tripinfo_flow6.4 routing_flow6.4" vType="type1" speedFactor="0.94" vaporized=""/>
    <tripinfo id="flow1.6" depart="67.00" departLane="E5_0" departPos="5.10" departSpeed="0.00" departDelay="5.00" arrival="99.00" arrivalLane="E4_0" arrivalPos="61.38" arrivalSpeed="12.09" duration="32.00" routeLength="240.72" waitingTime="3.00" waitingCount="1" stopTime="0.00" timeLoss="11.08" rerouteNo="0" devices="tripinfo_flow1.6 routing_flow1.6" vType="type1" speedFactor="0.88" vaporized=""/>
    <tripinfo id="flow20.0" depart="6.00" departLane="-E19_0" departPos="5.10" departSpeed="0.00" departDelay="0.00" arrival="102.00" arrivalLane="-E5_1" arrivalPos="175.40" arrivalSpeed="15.69" duration="96.00" routeLength="1287.60" waitingTime="4.00" waitingCount="1" stopTime="0.00" timeLoss="15.68" rerouteNo="1" devices="tripinfo_flow20.0 routing_flow20.0" vType="type1" speedFactor="1.16" vaporized=""/>
    <tripinfo id="flow6.5" depart="36.00" departLane="E2_0" departPos="5.10" departSpeed="0.00" departDelay="0.00" arrival="103.00" arrivalLane="-E5_0" arrivalPos="175.40" arrivalSpeed="14.32" duration="67.00" routeLength="539.70" waitingTime="9.00" waitingCount="3" stopTime="0.00" timeLoss="27.93" rerouteNo="1" devices="tripinfo_flow6.5 routing_flow6.5" vType="type1" speedFactor="1.03" vaporized=""/>
    <tripinfo id="flow1.7" depart="83.00" departLane="E5_0" departPos="5.10" departSpeed="0.00" departDelay="6.00" arrival="105.00" arrivalLane="E4_0" arrivalPos="61.38" arrivalSpeed="15.91" duration="22.00" routeLength="240.72" waitingTime="0.00" waitingCount="0" stopTime="0.00" timeLoss="6.53" rerouteNo="0" devices="tripinfo_flow1.7 routing_flow1.7" vType="type1" speedFactor="1.18" vaporized=""/>
    <tripinfo id="flow23.0" depart="12.00" departLane="-E7_0" departPos="5.10" departSpeed="0.00" departDelay="0.00" arrival="106.00" arrivalLane="E19_0" arrivalPos="500.91" arrivalSpeed="14.43" duration="94.00" routeLength="1072.94" waitingTime="7.00" waitingCount="1" stopTime="0.00" timeLoss="24.15" rerouteNo="0" devices="tripinfo_flow23.0 routing_flow23.0" vType="type1" speedFactor="1.13" vaporized=""/>
    <tripinfo id="flow1.8" depart="86.00" departLane="E5_0" departPos="5.10" departSpeed="0.00" departDelay="4.00" arrival="111.00" arrivalLane="E4_0" arrivalPos="61.38" arrivalSpeed="11.39" duration="25.00" routeLength="240.72" waitingTime="0.00" waitingCount="0" stopTime="0.00" timeLoss="5.00" rerouteNo="0" devices="tripinfo_flow1.8 routing_flow1.8" vType="type1" speedFactor="0.91" vaporized=""/>
    <tripinfo id="flow6.6" depart="42.00" departLane="E2_0" departPos="5.10" departSpeed="0.00" departDelay="0.00" arrival="113.00" arrivalLane="-E5_0" arrivalPos="175.40" arrivalSpeed="12.58" duration="71.00" routeLength="539.70" waitingTime="12.00" waitingCount="3" stopTime="0.00" timeLoss="29.96" rerouteNo="1" devices="tripinfo_flow6.6 routing_flow6.6" vType="type1" speedFactor="0.99" vaporized=""/>
    <tripinfo id="flow11.0" depart="21.00" departLane="-E3_0" departPos="5.10" departSpeed="0.00" departDelay="0.00" arrival="117.00" arrivalLane="-E5_0" arrivalPos="175.40" arrivalSpeed="14.63" duration="96.00" routeLength="1268.98" waitingTime="0.00" waitingCount="0" stopTime="0.00" timeLoss="8.24" rerouteNo="0" devices="tripinfo_flow11.0 routing_flow11.0" vType="type1" speedFactor="1.06" vaporized=""/>
    <tripinfo id="flow4.0" depart="15.00" departLane="E5_0" departPos="5.10" departSpeed="0.00" departDelay="0.00" arrival="120.00" arrivalLane="E15_0" arrivalPos="412.45" arrivalSpeed="12.09" duration="105.00" routeLength="1192.34" waitingTime="0.00" waitingCount="0" stopTime="0.00" timeLoss="13.31" rerouteNo="1" devices="tripinfo_flow4.0 routing_flow4.0" vType="type1" speedFactor="0.95" vaporized=""/>
    <tripinfo id="flow1.9" depart="100.00" departLane="E5_0" departPos="5.10" departSpeed="0.00" departDelay="3.00" arrival="124.00" arrivalLane="E4_0" arrivalPos="61.38" arrivalSpeed="14.23" duration="24.00" routeLength="240.72" waitingTime="0.00" waitingCount="0" stopTime="0.00" timeLoss="5.82" rerouteNo="0" devices="tripinfo_flow1.9 routing_flow1.9" vType="type1" speedFactor="1.03" vaporized=""/>
    <tripinfo id="flow25.0" depart="9.00" departLane="-E7_0" departPos="5.10" departSpeed="0.00" departDelay="0.00" arrival="125.00" arrivalLane="-E5_1" arrivalPos="175.40" arrivalSpeed="13.57" duration="116.00" routeLength="1341.75" waitingTime="3.00" waitingCount="1" stopTime="0.00" timeLoss="22.99" rerouteNo="1" devices="tripinfo_flow25.0 routing_flow25.0" vType="type1" speedFactor="1.05" vaporized=""/>
    <tripinfo id="flow6.7" depart="51.00" departLane="E2_0" departPos="5.10" departSpeed="0.00" departDelay="0.00" arrival="126.00" arrivalLane="-E5_0" arrivalPos="175.40" arrivalSpeed="11.40" duration="75.00" routeLength="539.70" waitingTime="6.00" waitingCount="2" stopTime="0.00" timeLoss="30.25" rerouteNo="1" devices="tripinfo_flow6.7 routing_flow6.7" vType="type1" speedFactor="0.89" vaporized=""/>
    <tripinfo id="flow1.10" depart="103.00" departLane="E5_0" departPos="5.10" departSpeed="0.00" departDelay="0.00" arrival="126.00" arrivalLane="E4_0" arrivalPos="61.38" arrivalSpeed="14.75" duration="23.00" routeLength="240.72" waitingTime="0.00" waitingCount="0" stopTime="0.00" timeLoss="5.45" rerouteNo="0" devices="tripinfo_flow1.10 routing_flow1.10" vType="type1" speedFactor="1.08" vaporized=""/>
    <tripinfo id="flow3.0" depart="4.00" departLane="E5_0" departPos="5.10" departSpeed="0.00" departDelay="0.00" arrival="128.00" arrivalLane="E7_0" arrivalPos="560.39" arrivalSpeed="13.87" duration="124.00" routeLength="1348.22" waitingTime="11.00" waitingCount="2" stopTime="0.00" timeLoss="28.72" rerouteNo="1" devices="tripinfo_flow3.0 routing_flow3.0" vType="type1" speedFactor="1.03" vaporized=""/>
    <tripinfo id="flow1.11" depart="106.00" departLane="E5_0" departPos="5.10" departSpeed="0.00" departDelay="1.00" arrival="128.00" arrivalLane="E4_0" arrivalPos="61.38" arrivalSpeed="14.78" duration="22.00" routeLength="240.72" waitingTime="0.00" waitingCount="0" stopTime="0.00" timeLoss="5.98" rerouteNo="0" devices="tripinfo_flow1.11 routing_flow1.11" vType="type1" speedFactor="1.13" vaporized=""/>
    <tripinfo id="flow6.8" depart="57.00" departLane="E2_0" departPos="5.10" departSpeed="0.00" departDelay="5.00" arrival="132.00" arrivalLane="-E5_0" arrivalPos="175.40" arrivalSpeed="10.99" duration="75.00" routeLength="539.70" waitingTime="9.00" waitingCount="3" stopTime="0.00" timeLoss="29.42" rerouteNo="1" devices="tripinfo_flow6.8 routing_flow6.8" vType="type1" speedFactor="0.88" vaporized=""/>
    <tripinfo id="flow25.1" depart="18.00" departLane="-E7_0" departPos="5.10" departSpeed="0.00" departDelay="0.00" arrival="133.00" arrivalLane="-E5_1" arrivalPos="175.40" arrivalSpeed="13.60" duration="115.00" routeLength="1341.75" waitingTime="3.00" waitingCount="1" stopTime="0.00" timeLoss="16.36" rerouteNo="1" devices="tripinfo_flow25.1 routing_flow25.1" vType="type1" speedFactor="0.99" vaporized=""/>
    <tripinfo id="flow23.1" depart="27.00" departLane="-E7_0" departPos="5.10" departSpeed="0.00" departDelay="0.00" arrival="134.00" arrivalLane="E19_0" arrivalPos="500.91" arrivalSpeed="13.18" duration="107.00" routeLength="1072.94" waitingTime="3.00" waitingCount="1" stopTime="0.00" timeLoss="29.14" rerouteNo="0" devices="tripinfo_flow23.1 routing_flow23.1" vType="type1" speedFactor="1.01" vaporized=""/>
    <tripinfo id="flow11.1" depart="30.00" departLane="-E3_0" departPos="5.10" departSpeed="0.00" departDelay="0.00" arrival="134.00" arrivalLane="-E5_0" arrivalPos="175.40" arrivalSpeed="13.04" duration="104.00" routeLength="1268.98" waitingTime="0.00" waitingCount="0" stopTime="0.00" timeLoss="8.83" rerouteNo="0" devices="tripinfo_flow11.1 routing_flow11.1" vType="type1" speedFactor="0.98" vaporized=""/>
    <tripinfo id="flow4.1" depart="44.00" departLane="E5_0" departPos="5.10" departSpeed="0.00" departDelay="0.00" arrival="140.00" arrivalLane="E15_0" arrivalPos="412.45" arrivalSpeed="13.95" duration="96.00" routeLength="1192.34" waitingTime="0.00" waitingCount="0" stopTime="0.00" timeLoss="12.11" rerouteNo="1" devices="tripinfo_flow4.1 routing_flow4.1" vType="type1" speedFactor="1.03" vaporized=""/>
    <tripinfo id="flow6.9" depart="62.00" departLane="E2_0" departPos="5.10" departSpeed="0.00" departDelay="0.00" arrival="141.00" arrivalLane="-E5_0" arrivalPos="175.40" arrivalSpeed="12.56" duration="79.00" routeLength="539.70" waitingTime="9.00" waitingCount="4" stopTime="0.00" timeLoss="35.31" rerouteNo="1" devices="tripinfo_flow6.9 routing_flow6.9" vType="type1" speedFactor="0.92" vaporized=""/>
    <tripinfo id="flow6.10" depart="82.00" departLane="E2_0" departPos="5.10" departSpeed="0.00" departDelay="1.00" arrival="141.00" arrivalLane="-E5_1" arrivalPos="175.40" arrivalSpeed="14.41" duration="59.00" routeLength="539.70" waitingTime="3.00" waitingCount="1" stopTime="0.00" timeLoss="20.62" rerouteNo="1" devices="tripinfo_flow6.10 routing_flow6.10" vType="type1" speedFactor="1.05" vaporized=""/>
    <tripinfo id="flow1.12" depart="118.00" departLane="E5_0" departPos="5.10" departSpeed="0.00" departDelay="2.00" arrival="141.00" arrivalLane="E4_0" arrivalPos="61.38" arrivalSpeed="15.02" duration="23.00" routeLength="240.72" waitingTime="0.00" waitingCount="0" stopTime="0.00" timeLoss="6.28" rerouteNo="0" devices="tripinfo_flow1.12 routing_flow1.12" vType="type1" speedFactor="1.10" vaporized=""/>
    <tripinfo id="flow27.0" depart="21.00" departLane="-E7_0" departPos="5.10" departSpeed="0.00" departDelay="1.00" arrival="147.00" arrivalLane="E4_0" arrivalPos="61.38" arrivalSpeed="13.51" duration="126.00" routeLength="1232.26" waitingTime="13.00" waitingCount="3" stopTime="0.00" timeLoss="39.16" rerouteNo="1" devices="tripinfo_flow27.0 routing_flow27.0" vType="type1" speedFactor="1.04" vaporized=""/>
    <tripinfo id="flow23.2" depart="39.00" departLane="-E7_0" departPos="5.10" departSpeed="0.00" departDelay="1.00" arrival="148.00" arrivalLane="E19_0" arrivalPos="500.91" arrivalSpeed="14.00" duration="109.00" routeLength="1072.94" waitingTime="1.00" waitingCount="1" stopTime="0.00" timeLoss="34.30" rerouteNo="0" devices="tripinfo_flow23.2 routing_flow23.2" vType="type1" speedFactor="1.05" vaporized=""/>
    <tripinfo id="flow1.13" depart="127.00" departLane="E5_0" departPos="5.10" departSpeed="0.00" departDelay="6.00" arrival="153.00" arrivalLane="E4_0" arrivalPos="61.38" arrivalSpeed="13.76" duration="26.00" routeLength="240.72" waitingTime="0.00" waitingCount="0" stopTime="0.00" timeLoss="7.44" rerouteNo="0" devices="tripinfo_flow1.13 routing_flow1.13" vType="type1" speedFactor="1.01" vaporized=""/>
    <tripinfo id="flow1.14" depart="130.00" departLane="E5_0" departPos="5.10" departSpeed="0.00" departDelay="8.00" arrival="155.00" arrivalLane="E4_0" arrivalPos="61.38" arrivalSpeed="15.24" duration="25.00" routeLength="240.72" waitingTime="0.00" waitingCount="0" stopTime="0.00" timeLoss="8.36" rerouteNo="0" devices="tripinfo_flow1.14 routing_flow1.14" vType="type1" speedFactor="1.11" vaporized=""/>
    <tripinfo id="flow3.1" depart="7.00" departLane="E5_0" departPos="5.10" departSpeed="0.00" departDelay="1.00" arrival="156.00" arrivalLane="E7_0" arrivalPos="560.39" arrivalSpeed="11.68" duration="149.00" routeLength="1348.22" waitingTime="19.00" waitingCount="2" stopTime="0.00" timeLoss="37.77" rerouteNo="1" devices="tripinfo_flow3.1 routing_flow3.1" vType="type1" speedFactor="0.88" vaporized=""/>
    <tripinfo id="flow20.1" depart="46.00" departLane="-E19_0" departPos="5.10" departSpeed="0.00" departDelay="0.00" arrival="157.00" arrivalLane="-E5_1" arrivalPos="175.40" arrivalSpeed="14.43" duration="111.00" routeLength="1287.60" waitingTime="0.00" waitingCount="0" stopTime="0.00" timeLoss="22.54" rerouteNo="1" devices="tripinfo_flow20.1 routing_flow20.1" vType="type1" speedFactor="1.05" vaporized=""/>
    <tripinfo id="flow6.11" depart="85.00" departLane="E2_0" departPos="5.10" departSpeed="0.00" departDelay="0.00" arrival="158.00" arrivalLane="-E5_0" arrivalPos="175.40" arrivalSpeed="11.11" duration="73.00" routeLength="539.70" waitingTime="8.00" waitingCount="2" stopTime="0.00" timeLoss="27.02" rerouteNo="1" devices="tripinfo_flow6.11 routing_flow6.11" vType="type1" speedFactor="0.88" vaporized=""/>
    <tripinfo id="flow6.12" depart="105.00" departLane="E2_0" departPos="5.10" departSpeed="0.00" departDelay="0.00" arrival="159.00" arrivalLane="-E5_1" arrivalPos="175.40" arrivalSpeed="15.55" duration="54.00" routeLength="539.70" waitingTime="6.00" waitingCount="1" stopTime="0.00" timeLoss="19.36" rerouteNo="1" devices="tripinfo_flow6.12 routing_flow6.12" vType="type1" speedFactor="1.16" vaporized=""/>
    <tripinfo id="flow1.15" depart="136.00" departLane="E5_0" departPos="5.10" departSpeed="0.00" departDelay="7.00" arrival="159.00" arrivalLane="E4_0" arrivalPos="61.38" arrivalSpeed="15.71" duration="23.00" routeLength="240.72" waitingTime="0.00" waitingCount="0" stopTime="0.00" timeLoss="7.09" rerouteNo="0" devices="tripinfo_flow1.15 routing_flow1.15" vType="type1" speedFactor="1.18" vaporized=""/>
    <tripinfo id="flow8.0" depart="79.00" departLane="E2_0" departPos="5.10" departSpeed="0.00" departDelay="0.00" arrival="160.00" arrivalLane="E15_0" arrivalPos="412.45" arrivalSpeed="12.93" duration="81.00" routeLength="781.21" waitingTime="4.00" waitingCount="1" stopTime="0.00" timeLoss="23.26" rerouteNo="1" devices="tripinfo_flow8.0 routing_flow8.0" vType="type1" speedFactor="1.01" vaporized=""/>
    <tripinfo id="flow11.2" depart="40.00" departLane="-E3_0" departPos="5.10" departSpeed="0.00" departDelay="0.00" arrival="161.00" arrivalLane="-E5_0" arrivalPos="175.40" arrivalSpeed="10.90" duration="121.00" routeLength="1268.98" waitingTime="0.00" waitingCount="0" stopTime="0.00" timeLoss="11.77" rerouteNo="0" devices="tripinfo_flow11.2 routing_flow11.2" vType="type1" speedFactor="0.84" vaporized=""/>
    <tripinfo id="flow18.0" depart="72.00" departLane="-E15_0" departPos="5.10" departSpeed="0.00" departDelay="0.00" arrival="161.00" arrivalLane="-E5_1" arrivalPos="175.40" arrivalSpeed="16.79" duration="89.00" routeLength="1200.87" waitingTime="0.00" waitingCount="0" stopTime="0.00" timeLoss="16.39" rerouteNo="1" devices="tripinfo_flow18.0 routing_flow18.0" vType="type1" speedFactor="1.22" vaporized=""/>
    <tripinfo id="flow3.3" depart="28.00" departLane="E5_0" departPos="5.10" departSpeed="0.00" departDelay="3.00" arrival="162.00" arrivalLane="E7_0" arrivalPos="560.39" arrivalSpeed="12.71" duration="134.00" routeLength="1348.22" waitingTime="12.00" waitingCount="2" stopTime="0.00" timeLoss="29.49" rerouteNo="1" devices="tripinfo_flow3.3 routing_flow3.3" vType="type1" speedFactor="0.94" vaporized=""/>
    <tripinfo id="flow3.2" depart="19.00" departLane="E5_0" departPos="5.10" departSpeed="0.00" departDelay="0.00" arrival="163.00" arrivalLane="E7_0" arrivalPos="560.39" arrivalSpeed="14.04" duration="144.00" routeLength="1348.22" waitingTime="14.00" waitingCount="3" stopTime="0.00" timeLoss="49.93" rerouteNo="1" devices="tripinfo_flow3.2 routing_flow3.2" vType="type1" speedFactor="1.04" vaporized=""/>
    <tripinfo id="flow7.0" depart="54.00" departLane="E2_0" departPos="5.10" departSpeed="0.00" departDelay="3.00" arrival="165.00" arrivalLane="E7_0" arrivalPos="560.39" arrivalSpeed="13.47" duration="111.00" routeLength="937.09" waitingTime="6.00" waitingCount="3" stopTime="0.00" timeLoss="42.75" rerouteNo="1" devices="tripinfo_flow7.0 routing_flow7.0" vType="type1" speedFactor="1.01" vaporized=""/>
    <tripinfo id="flow25.4" depart="33.00" departLane="-E7_0" departPos="5.10" departSpeed="0.00" departDelay="4.00" arrival="166.00" arrivalLane="-E5_1" arrivalPos="175.40" arrivalSpeed="13.82" duration="133.00" routeLength="1341.75" waitingTime="1.00" waitingCount="1" stopTime="0.00" timeLoss="42.68" rerouteNo="1" devices="tripinfo_flow25.4 routing_flow25.4" vType="type1" speedFactor="1.09" vaporized=""/>
    <tripinfo id="flow10.0" depart="10.00" departLane="E2_0" departPos="5.10" departSpeed="0.00" departDelay="3.00" arrival="167.00" arrivalLane="E3_0" arrivalPos="1083.70" arrivalSpeed="9.88" duration="157.00" routeLength="1441.26" waitingTime="2.00" waitingCount="1" stopTime="0.00" timeLoss="18.08" rerouteNo="1" devices="tripinfo_flow10.0 routing_flow10.0" vType="type1" speedFactor="0.76" vaporized=""/>
    <tripinfo id="flow23.3" depart="61.00" departLane="-E7_0" departPos="5.10" departSpeed="0.00" departDelay="1.00" arrival="167.00" arrivalLane="E19_0" arrivalPos="500.91" arrivalSpeed="11.80" duration="106.00" routeLength="1072.94" waitingTime="0.00" waitingCount="0" stopTime="0.00" timeLoss="21.56" rerouteNo="0" devices="tripinfo_flow23.3 routing_flow23.3" vType="type1" speedFactor="0.93" vaporized=""/>
    <tripinfo id="flow10.1" depart="16.00" departLane="E2_0" departPos="5.10" departSpeed="0.00" departDelay="0.00" arrival="168.00" arrivalLane="E3_0" arrivalPos="1083.70" arrivalSpeed="12.47" duration="152.00" routeLength="1441.26" waitingTime="8.00" waitingCount="2" stopTime="0.00" timeLoss="39.04" rerouteNo="1" devices="tripinfo_flow10.1 routing_flow10.1" vType="type1" speedFactor="0.93" vaporized=""/>
    <tripinfo id="flow25.5" depart="36.00" departLane="-E7_0" departPos="5.10" departSpeed="0.00" departDelay="6.00" arrival="170.00" arrivalLane="-E5_1" arrivalPos="175.40" arrivalSpeed="13.31" duration="134.00" routeLength="1341.75" waitingTime="0.00" waitingCount="0" stopTime="0.00" timeLoss="37.65" rerouteNo="1" devices="tripinfo_flow25.5 routing_flow25.5" vType="type1" speedFactor="1.02" vaporized=""/>
    <tripinfo id="flow2.0" depart="48.00" departLane="E5_0" departPos="5.10" departSpeed="0.00" departDelay="0.00" arrival="170.00" arrivalLane="E3_0" arrivalPos="1083.70" arrivalSpeed="12.02" duration="122.00" routeLength="1271.90" waitingTime="5.00" waitingCount="1" stopTime="0.00" timeLoss="17.36" rerouteNo="0" devices="tripinfo_flow2.0 routing_flow2.0" vType="type1" speedFactor="0.88" vaporized=""/>
    <tripinfo id="flow25.2" depart="24.00" departLane="-E7_0" departPos="5.10" departSpeed="0.00" departDelay="2.00" arrival="171.00" arrivalLane="-E5_0" arrivalPos="175.40" arrivalSpeed="9.13" duration="147.00" routeLength="1341.75" waitingTime="0.00" waitingCount="0" stopTime="0.00" timeLoss="11.96" rerouteNo="1" devices="tripinfo_flow25.2 routing_flow25.2" vType="type1" speedFactor="0.72" vaporized=""/>
    <tripinfo id="flow25.6" depart="52.00" departLane="-E7_0" departPos="5.10" departSpeed="0.00" departDelay="0.00" arrival="171.00" arrivalLane="-E5_1" arrivalPos="175.40" arrivalSpeed="15.04" duration="119.00" routeLength="1341.75" waitingTime="0.00" waitingCount="0" stopTime="0.00" timeLoss="36.12" rerouteNo="1" devices="tripinfo_flow25.6 routing_flow25.6" vType="type1" speedFactor="1.18" vaporized=""/>
    <tripinfo id="flow23.4" depart="64.00" departLane="-E7_0" departPos="5.10" departSpeed="0.00" departDelay="3.00" arrival="171.00" arrivalLane="E19_0" arrivalPos="500.91" arrivalSpeed="14.82" duration="107.00" routeLength="1072.94" waitingTime="5.00" waitingCount="1" stopTime="0.00" timeLoss="36.51" rerouteNo="0" devices="tripinfo_flow23.4 routing_flow23.4" vType="type1" speedFactor="1.11" vaporized=""/>
    <tripinfo id="flow4.2" depart="70.00" departLane="E5_0" departPos="5.10" departSpeed="0.00" departDelay="7.00" arrival="172.00" arrivalLane="E15_0" arrivalPos="412.45" arrivalSpeed="14.47" duration="102.00" routeLength="1192.34" waitingTime="0.00" waitingCount="0" stopTime="0.00" timeLoss="22.35" rerouteNo="1" devices="tripinfo_flow4.2 routing_flow4.2" vType="type1" speedFactor="1.09" vaporized=""/>
    <tripinfo id="flow1.16" depart="152.00" departLane="E5_0" departPos="5.10" departSpeed="0.00" departDelay="11.00" arrival="176.00" arrivalLane="E4_0" arrivalPos="61.38" arrivalSpeed="13.44" duration="24.00" routeLength="240.72" waitingTime="0.00" waitingCount="0" stopTime="0.00" timeLoss="6.14" rerouteNo="0" devices="tripinfo_flow1.16 routing_flow1.16" vType="type1" speedFactor="1.02" vaporized=""/>
    <tripinfo id="flow25.3" depart="30.00" departLane="-E7_0" departPos="5.10" departSpeed="0.00" departDelay="2.00" arrival="179.00" arrivalLane="-E5_0" arrivalPos="175.40" arrivalSpeed="9.64" duration="149.00" routeLength="1341.75" waitingTime="1.00" waitingCount="1" stopTime="0.00" timeLoss="18.35" rerouteNo="1" devices="tripinfo_flow25.3 routing_flow25.3" vType="type1" speedFactor="0.75" vaporized=""/>
    <tripinfo id="flow11.3" depart="73.00" departLane="-E3_0" departPos="5.10" departSpeed="0.00" departDelay="0.00" arrival="181.00" arrivalLane="-E5_0" arrivalPos="175.40" arrivalSpeed="12.17" duration="108.00" routeLength="1268.98" waitingTime="0.00" waitingCount="0" stopTime="0.00" timeLoss="10.34" rerouteNo="0" devices="tripinfo_flow11.3 routing_flow11.3" vType="type1" speedFactor="0.95" vaporized=""/>
    <tripinfo id="flow19.0" depart="78.00" departLane="-E19_0" departPos="5.10" departSpeed="0.00" departDelay="0.00" arrival="182.00" arrivalLane="E7_0" arrivalPos="560.39" arrivalSpeed="10.29" duration="104.00" routeLength="1067.05" waitingTime="0.00" waitingCount="0" stopTime="0.00" timeLoss="9.42" rerouteNo="0" devices="tripinfo_flow19.0 routing_flow19.0" vType="type1" speedFactor="0.83" vaporized=""/>
    <tripinfo id="flow11.4" depart="79.00" departLane="-E3_0" departPos="5.10" departSpeed="0.00" departDelay="0.00" arrival="182.00" arrivalLane="-E5_0" arrivalPos="175.40" arrivalSpeed="13.64" duration="103.00" routeLength="1268.98" waitingTime="0.00" waitingCount="0" stopTime="0.00" timeLoss="13.78" rerouteNo="0" devices="tripinfo_flow11.4 routing_flow11.4" vType="type1" speedFactor="1.03" vaporized=""/>
    <tripinfo id="flow26.0" depart="4.00" departLane="-E7_0" departPos="5.10" departSpeed="0.00" departDelay="0.00" arrival="183.00" arrivalLane="E3_0" arrivalPos="1083.70" arrivalSpeed="13.68" duration="179.00" routeLength="2243.31" waitingTime="1.00" waitingCount="1" stopTime="0.00" timeLoss="18.43" rerouteNo="1" devices="tripinfo_flow26.0 routing_flow26.0" vType="type1" speedFactor="1.02" vaporized=""/>
    <tripinfo id="flow10.2" depart="45.00" departLane="E2_0" departPos="5.10" departSpeed="0.00" departDelay="1.00" arrival="184.00" arrivalLane="E3_0" arrivalPos="1083.70" arrivalSpeed="15.26" duration="139.00" routeLength="1441.26" waitingTime="9.00" waitingCount="3" stopTime="0.00" timeLoss="45.71" rerouteNo="1" devices="tripinfo_flow10.2 routing_flow10.2" vType="type1" speedFactor="1.13" vaporized=""/>
    <tripinfo id="flow27.1" depart="55.00" departLane="-E7_0" departPos="5.10" departSpeed="0.00" departDelay="1.00" arrival="187.00" arrivalLane="E4_0" arrivalPos="61.38" arrivalSpeed="11.29" duration="132.00" routeLength="1232.26" waitingTime="4.00" waitingCount="1" stopTime="0.00" timeLoss="25.55" rerouteNo="1" devices="tripinfo_flow27.1 routing_flow27.1" vType="type1" speedFactor="0.85" vaporized=""/>
    <tripinfo id="flow23.5" depart="80.00" departLane="-E7_0" departPos="5.10" departSpeed="0.00" departDelay="3.00" arrival="189.00" arrivalLane="E19_0" arrivalPos="500.91" arrivalSpeed="13.38" duration="109.00" routeLength="1072.94" waitingTime="0.00" waitingCount="0" stopTime="0.00" timeLoss="32.12" rerouteNo="0" devices="tripinfo_flow23.5 routing_flow23.5" vType="type1" speedFactor="1.02" vaporized=""/>
    <tripinfo id="flow20.2" depart="83.00" departLane="-E19_0" departPos="5.10" departSpeed="0.00" departDelay="0.00" arrival="190.00" arrivalLane="-E5_0" arrivalPos="175.40" arrivalSpeed="13.52" duration="107.00" routeLength="1287.60" waitingTime="0.00" waitingCount="0" stopTime="0.00" timeLoss="18.56" rerouteNo="1" devices="tripinfo_flow20.2 routing_flow20.2" vType="type1" speedFactor="1.05" vaporized=""/>
    <tripinfo id="flow1.17" depart="161.00" departLane="E5_0" departPos="5.10" departSpeed="0.00" departDelay="15.00" arrival="190.00" arrivalLane="E4_0" arrivalPos="61.38" arrivalSpeed="10.92" duration="29.00" routeLength="240.72" waitingTime="0.00" waitingCount="0" stopTime="0.00" timeLoss="8.15" rerouteNo="0" devices="tripinfo_flow1.17 routing_flow1.17" vType="type1" speedFactor="0.87" vaporized=""/>
    <tripinfo id="flow3.4" depart="50.00" departLane="E5_0" departPos="5.10" departSpeed="0.00" departDelay="2.00" arrival="192.00" arrivalLane="E7_0" arrivalPos="560.39" arrivalSpeed="12.53" duration="142.00" routeLength="1348.22" waitingTime="22.00" waitingCount="2" stopTime="0.00" timeLoss="38.31" rerouteNo="1" devices="tripinfo_flow3.4 routing_flow3.4" vType="type1" speedFactor="0.94" vaporized=""/>