<?xml version="1.0" encoding="UTF-8"?>

<!-- generated on 2024-12-13 22:01:36 by Eclipse SUMO GUI Version 1.20.0
<configuration xmlns:xsi="http://www.w3.org/2001/XMLSchema-instance" xsi:noNamespaceSchemaLocation="http://sumo.dlr.de/xsd/sumoConfiguration.xsd">

    <input>
        <net-file value="E:\python_program\TSC_RL\data\smwan1.net.xml"/>
        <route-files value="E:\python_program\TSC_RL\data\smwan1.rou.xml"/>
    </input>

    <output>
        <summary-output value="E:\python_program\TSC_RL\data\output/summary_rl.xml"/>
        <tripinfo-output value="E:\python_program\TSC_RL\data\output/tripinfo.xml"/>
    </output>

    <time>
        <begin value="0"/>
        <end value="3600"/>
    </time>

    <gui_only>
        <quit-on-end value="true"/>
        <start value="t"/>
    </gui_only>

</configuration>
-->

<tripinfos xmlns:xsi="http://www.w3.org/2001/XMLSchema-instance" xsi:noNamespaceSchemaLocation="http://sumo.dlr.de/xsd/tripinfo_file.xsd">
    <tripinfo id="flow1.0" depart="9.00" departLane="E5_0" departPos="5.10" departSpeed="0.00" departDelay="0.00" arrival="35.00" arrivalLane="E4_0" arrivalPos="61.38" arrivalSpeed="11.88" duration="26.00" routeLength="240.72" waitingTime="0.00" waitingCount="0" stopTime="0.00" timeLoss="5.13" rerouteNo="0" devices="tripinfo_flow1.0 routing_flow1.0" vType="type1" speedFactor="0.89" vaporized=""/>
    <tripinfo id="flow6.0" depart="0.00" departLane="E2_0" departPos="5.10" departSpeed="0.00" departDelay="0.00" arrival="87.00" arrivalLane="-E5_0" arrivalPos="175.40" arrivalSpeed="12.28" duration="87.00" routeLength="539.70" waitingTime="33.00" waitingCount="1" stopTime="0.00" timeLoss="44.19" rerouteNo="1" devices="tripinfo_flow6.0 routing_flow6.0" vType="type1" speedFactor="0.94" vaporized=""/>
    <tripinfo id="flow19.0" depart="5.00" departLane="-E19_0" departPos="5.10" departSpeed="0.00" departDelay="0.00" arrival="88.00" arrivalLane="E7_0" arrivalPos="560.39" arrivalSpeed="13.71" duration="83.00" routeLength="1067.05" waitingTime="0.00" waitingCount="0" stopTime="0.00" timeLoss="7.38" rerouteNo="0" devices="tripinfo_flow19.0 routing_flow19.0" vType="type1" speedFactor="1.03" vaporized=""/>
    <tripinfo id="flow6.3" depart="36.00" departLane="E2_0" departPos="5.10" departSpeed="0.00" departDelay="0.00" arrival="92.00" arrivalLane="-E5_1" arrivalPos="175.40" arrivalSpeed="13.59" duration="56.00" routeLength="539.70" waitingTime="4.00" waitingCount="1" stopTime="0.00" timeLoss="16.40" rerouteNo="1" devices="tripinfo_flow6.3 routing_flow6.3" vType="type1" speedFactor="1.02" vaporized=""/>
    <tripinfo id="flow1.1" depart="28.00" departLane="E5_0" departPos="5.10" departSpeed="0.00" departDelay="2.00" arrival="93.00" arrivalLane="E4_0" arrivalPos="61.38" arrivalSpeed="13.55" duration="65.00" routeLength="240.72" waitingTime="36.00" waitingCount="1" stopTime="0.00" timeLoss="46.02" rerouteNo="0" devices="tripinfo_flow1.1 routing_flow1.1" vType="type1" speedFactor="1.01" vaporized=""/>
    <tripinfo id="flow6.1" depart="8.00" departLane="E2_0" departPos="5.10" departSpeed="0.00" departDelay="0.00" arrival="95.00" arrivalLane="-E5_0" arrivalPos="175.40" arrivalSpeed="10.62" duration="87.00" routeLength="539.70" waitingTime="28.00" waitingCount="1" stopTime="0.00" timeLoss="38.28" rerouteNo="1" devices="tripinfo_flow6.1 routing_flow6.1" vType="type1" speedFactor="0.83" vaporized=""/>
    <tripinfo id="flow11.0" depart="0.00" departLane="-E3_0" departPos="5.10" departSpeed="0.00" departDelay="0.00" arrival="100.00" arrivalLane="-E5_0" arrivalPos="175.40" arrivalSpeed="13.99" duration="100.00" routeLength="1268.98" waitingTime="0.00" waitingCount="0" stopTime="0.00" timeLoss="8.85" rerouteNo="0" devices="tripinfo_flow11.0 routing_flow11.0" vType="type1" speedFactor="1.01" vaporized=""/>
    <tripinfo id="flow1.2" depart="50.00" departLane="E5_0" departPos="5.10" departSpeed="0.00" departDelay="1.00" arrival="100.00" arrivalLane="E4_0" arrivalPos="61.38" arrivalSpeed="13.04" duration="50.00" routeLength="240.72" waitingTime="18.00" waitingCount="1" stopTime="0.00" timeLoss="30.17" rerouteNo="0" devices="tripinfo_flow1.2 routing_flow1.2" vType="type1" speedFactor="0.96" vaporized=""/>
    <tripinfo id="flow11.1" depart="10.00" departLane="-E3_0" departPos="5.10" departSpeed="0.00" departDelay="0.00" arrival="103.00" arrivalLane="-E5_0" arrivalPos="175.40" arrivalSpeed="15.01" duration="93.00" routeLength="1268.98" waitingTime="0.00" waitingCount="0" stopTime="0.00" timeLoss="8.35" rerouteNo="0" devices="tripinfo_flow11.1 routing_flow11.1" vType="type1" speedFactor="1.09" vaporized=""/>
    <tripinfo id="flow1.3" depart="60.00" departLane="E5_0" departPos="5.10" departSpeed="0.00" departDelay="5.00" arrival="103.00" arrivalLane="E4_0" arrivalPos="61.38" arrivalSpeed="11.21" duration="43.00" routeLength="240.72" waitingTime="10.00" waitingCount="1" stopTime="0.00" timeLoss="22.10" rerouteNo="0" devices="tripinfo_flow1.3 routing_flow1.3" vType="type1" speedFactor="0.88" vaporized=""/>
    <tripinfo id="flow1.4" depart="72.00" departLane="E5_0" departPos="5.10" departSpeed="0.00" departDelay="8.00" arrival="108.00" arrivalLane="E4_0" arrivalPos="61.38" arrivalSpeed="13.42" duration="36.00" routeLength="240.72" waitingTime="1.00" waitingCount="1" stopTime="0.00" timeLoss="16.39" rerouteNo="0" devices="tripinfo_flow1.4 routing_flow1.4" vType="type1" speedFactor="0.97" vaporized=""/>
    <tripinfo id="flow1.5" depart="83.00" departLane="E5_0" departPos="5.10" departSpeed="0.00" departDelay="3.00" arrival="111.00" arrivalLane="E4_0" arrivalPos="61.38" arrivalSpeed="12.54" duration="28.00" routeLength="240.72" waitingTime="0.00" waitingCount="0" stopTime="0.00" timeLoss="8.54" rerouteNo="0" devices="tripinfo_flow1.5 routing_flow1.5" vType="type1" speedFactor="0.97" vaporized=""/>
    <tripinfo id="flow11.2" depart="13.00" departLane="-E3_0" departPos="5.10" departSpeed="0.00" departDelay="0.00" arrival="112.00" arrivalLane="-E5_0" arrivalPos="175.40" arrivalSpeed="13.35" duration="99.00" routeLength="1268.98" waitingTime="0.00" waitingCount="0" stopTime="0.00" timeLoss="8.86" rerouteNo="0" devices="tripinfo_flow11.2 routing_flow11.2" vType="type1" speedFactor="1.03" vaporized=""/>
    <tripinfo id="flow1.6" depart="94.00" departLane="E5_0" departPos="5.10" departSpeed="0.00" departDelay="7.00" arrival="118.00" arrivalLane="E4_0" arrivalPos="61.38" arrivalSpeed="12.62" duration="24.00" routeLength="240.72" waitingTime="0.00" waitingCount="0" stopTime="0.00" timeLoss="5.22" rerouteNo="0" devices="tripinfo_flow1.6 routing_flow1.6" vType="type1" speedFactor="0.98" vaporized=""/>
    <tripinfo id="flow11.3" depart="30.00" departLane="-E3_0" departPos="5.10" departSpeed="0.00" departDelay="0.00" arrival="120.00" arrivalLane="-E5_0" arrivalPos="175.40" arrivalSpeed="14.70" duration="90.00" routeLength="1268.98" waitingTime="0.00" waitingCount="0" stopTime="0.00" timeLoss="8.26" rerouteNo="0" devices="tripinfo_flow11.3 routing_flow11.3" vType="type1" speedFactor="1.13" vaporized=""/>
    <tripinfo id="flow3.0" depart="0.00" departLane="E5_0" departPos="5.10" departSpeed="0.00" departDelay="0.00" arrival="135.00" arrivalLane="E7_0" arrivalPos="560.39" arrivalSpeed="14.66" duration="135.00" routeLength="1348.22" waitingTime="27.00" waitingCount="1" stopTime="0.00" timeLoss="41.96" rerouteNo="1" devices="tripinfo_flow3.0 routing_flow3.0" vType="type1" speedFactor="1.06" vaporized=""/>
    <tripinfo id="flow17.0" depart="39.00" departLane="-E15_0" departPos="5.10" departSpeed="0.00" departDelay="0.00" arrival="139.00" arrivalLane="E19_0" arrivalPos="500.91" arrivalSpeed="12.31" duration="100.00" routeLength="920.95" waitingTime="18.00" waitingCount="1" stopTime="0.00" timeLoss="31.15" rerouteNo="0" devices="tripinfo_flow17.0 routing_flow17.0" vType="type1" speedFactor="0.97" vaporized=""/>
    <tripinfo id="flow11.4" depart="56.00" departLane="-E3_0" departPos="5.10" departSpeed="0.00" departDelay="0.00" arrival="143.00" arrivalLane="-E5_0" arrivalPos="175.40" arrivalSpeed="16.21" duration="87.00" routeLength="1268.98" waitingTime="0.00" waitingCount="0" stopTime="0.00" timeLoss="8.29" rerouteNo="0" devices="tripinfo_flow11.4 routing_flow11.4" vType="type1" speedFactor="1.17" vaporized=""/>
    <tripinfo id="flow16.0" depart="29.00" departLane="-E15_0" departPos="5.10" departSpeed="0.00" departDelay="0.00" arrival="147.00" arrivalLane="E7_0" arrivalPos="560.39" arrivalSpeed="11.49" duration="118.00" routeLength="988.13" waitingTime="24.00" waitingCount="1" stopTime="0.00" timeLoss="36.14" rerouteNo="0" devices="tripinfo_flow16.0 routing_flow16.0" vType="type1" speedFactor="0.87" vaporized=""/>
    <tripinfo id="flow16.1" depart="52.00" departLane="-E15_0" departPos="5.10" departSpeed="0.00" departDelay="0.00" arrival="149.00" arrivalLane="E7_0" arrivalPos="560.39" arrivalSpeed="14.75" duration="97.00" routeLength="988.13" waitingTime="10.00" waitingCount="1" stopTime="0.00" timeLoss="30.80" rerouteNo="0" devices="tripinfo_flow16.1 routing_flow16.1" vType="type1" speedFactor="1.09" vaporized=""/>
    <tripinfo id="flow23.0" depart="46.00" departLane="-E7_0" departPos="5.10" departSpeed="0.00" departDelay="1.00" arrival="153.00" arrivalLane="E19_0" arrivalPos="500.91" arrivalSpeed="11.87" duration="107.00" routeLength="1072.94" waitingTime="4.00" waitingCount="1" stopTime="0.00" timeLoss="19.94" rerouteNo="0" devices="tripinfo_flow23.0 routing_flow23.0" vType="type1" speedFactor="0.90" vaporized=""/>
    <tripinfo id="flow12.0" depart="68.00" departLane="-E3_0" departPos="5.10" departSpeed="0.00" departDelay="0.00" arrival="161.00" arrivalLane="E4_0" arrivalPos="61.38" arrivalSpeed="13.38" duration="93.00" routeLength="1168.72" waitingTime="0.00" waitingCount="0" stopTime="0.00" timeLoss="7.72" rerouteNo="0" devices="tripinfo_flow12.0 routing_flow12.0" vType="type1" speedFactor="0.99" vaporized=""/>
    <tripinfo id="flow5.0" depart="15.00" departLane="E5_0" departPos="5.10" departSpeed="0.00" departDelay="5.00" arrival="167.00" arrivalLane="E19_0" arrivalPos="500.91" arrivalSpeed="11.42" duration="152.00" routeLength="1287.53" waitingTime="28.00" waitingCount="1" stopTime="0.00" timeLoss="43.56" rerouteNo="1" devices="tripinfo_flow5.0 routing_flow5.0" vType="type1" speedFactor="0.86" vaporized=""/>
    <tripinfo id="flow4.0" depart="37.00" departLane="E5_0" departPos="5.10" departSpeed="0.00" departDelay="3.00" arrival="168.00" arrivalLane="E15_0" arrivalPos="412.45" arrivalSpeed="13.19" duration="131.00" routeLength="1192.34" waitingTime="29.00" waitingCount="1" stopTime="0.00" timeLoss="44.03" rerouteNo="1" devices="tripinfo_flow4.0 routing_flow4.0" vType="type1" speedFactor="1.01" vaporized=""/>
    <tripinfo id="flow4.1" depart="47.00" departLane="E5_0" departPos="5.10" departSpeed="0.00" departDelay="0.00" arrival="170.00" arrivalLane="E15_0" arrivalPos="412.45" arrivalSpeed="14.27" duration="123.00" routeLength="1192.34" waitingTime="21.00" waitingCount="1" stopTime="0.00" timeLoss="38.32" rerouteNo="1" devices="tripinfo_flow4.1 routing_flow4.1" vType="type1" speedFactor="1.03" vaporized=""/>
    <tripinfo id="flow4.2" depart="78.00" departLane="E5_0" departPos="5.10" departSpeed="0.00" departDelay="1.00" arrival="176.00" arrivalLane="E15_0" arrivalPos="412.45" arrivalSpeed="14.34" duration="98.00" routeLength="1192.34" waitingTime="0.00" waitingCount="0" stopTime="0.00" timeLoss="14.30" rerouteNo="1" devices="tripinfo_flow4.2 routing_flow4.2" vType="type1" speedFactor="1.04" vaporized=""/>
    <tripinfo id="flow2.0" depart="22.00" departLane="E5_0" departPos="5.10" departSpeed="0.00" departDelay="1.00" arrival="179.00" arrivalLane="E3_0" arrivalPos="1083.70" arrivalSpeed="11.12" duration="157.00" routeLength="1271.90" waitingTime="38.00" waitingCount="1" stopTime="0.00" timeLoss="52.01" rerouteNo="0" devices="tripinfo_flow2.0 routing_flow2.0" vType="type1" speedFactor="0.88" vaporized=""/>
    <tripinfo id="flow2.1" depart="53.00" departLane="E5_0" departPos="5.10" departSpeed="0.00" departDelay="4.00" arrival="181.00" arrivalLane="E3_0" arrivalPos="1083.70" arrivalSpeed="15.15" duration="128.00" routeLength="1271.90" waitingTime="13.00" waitingCount="1" stopTime="0.00" timeLoss="42.81" rerouteNo="0" devices="tripinfo_flow2.1 routing_flow2.1" vType="type1" speedFactor="1.09" vaporized=""/>
    <tripinfo id="flow2.2" depart="55.00" departLane="E5_0" departPos="5.10" departSpeed="0.00" departDelay="3.00" arrival="183.00" arrivalLane="E3_0" arrivalPos="1083.70" arrivalSpeed="14.21" duration="128.00" routeLength="1271.90" waitingTime="11.00" waitingCount="1" stopTime="0.00" timeLoss="38.31" rerouteNo="0" devices="tripinfo_flow2.2 routing_flow2.2" vType="type1" speedFactor="1.04" vaporized=""/>
    <tripinfo id="flow2.3" depart="81.00" departLane="E5_0" departPos="5.10" departSpeed="0.00" departDelay="2.00" arrival="184.00" arrivalLane="E3_0" arrivalPos="1083.70" arrivalSpeed="13.58" duration="103.00" routeLength="1271.90" waitingTime="0.00" waitingCount="0" stopTime="0.00" timeLoss="12.69" rerouteNo="0" devices="tripinfo_flow2.3 routing_flow2.3" vType="type1" speedFactor="1.02" vaporized=""/>
    <tripinfo id="flow2.4" depart="86.00" departLane="E5_0" departPos="5.10" departSpeed="0.00" departDelay="5.00" arrival="186.00" arrivalLane="E3_0" arrivalPos="1083.70" arrivalSpeed="14.34" duration="100.00" routeLength="1271.90" waitingTime="0.00" waitingCount="0" stopTime="0.00" timeLoss="12.10" rerouteNo="0" devices="tripinfo_flow2.4 routing_flow2.4" vType="type1" speedFactor="1.06" vaporized=""/>
    <tripinfo id="flow3.1" depart="5.00" departLane="E5_0" departPos="5.10" departSpeed="0.00" departDelay="0.00" arrival="189.00" arrivalLane="E7_0" arrivalPos="560.39" arrivalSpeed="14.28" duration="184.00" routeLength="1348.22" waitingTime="77.00" waitingCount="2" stopTime="0.00" timeLoss="93.63" rerouteNo="1" devices="tripinfo_flow3.1 routing_flow3.1" vType="type1" speedFactor="1.08" vaporized=""/>
    <tripinfo id="flow11.5" depart="90.00" departLane="-E3_0" departPos="5.10" departSpeed="0.00" departDelay="0.00" arrival="191.00" arrivalLane="-E5_0" arrivalPos="175.40" arrivalSpeed="13.46" duration="101.00" routeLength="1268.98" waitingTime="0.00" waitingCount="0" stopTime="0.00" timeLoss="8.53" rerouteNo="0" devices="tripinfo_flow11.5 routing_flow11.5" vType="type1" speedFactor="1.00" vaporized=""/>
    <tripinfo id="flow3.3" depart="19.00" departLane="E5_0" departPos="5.10" departSpeed="0.00" departDelay="0.00" arrival="198.00" arrivalLane="E7_0" arrivalPos="560.39" arrivalSpeed="11.69" duration="179.00" routeLength="1348.22" waitingTime="54.00" waitingCount="2" stopTime="0.00" timeLoss="73.17" rerouteNo="1" devices="tripinfo_flow3.3 routing_flow3.3" vType="type1" speedFactor="0.93" vaporized=""/>
    <tripinfo id="flow3.2" depart="12.00" departLane="E5_0" departPos="5.10" departSpeed="0.00" departDelay="3.00" arrival="200.00" arrivalLane="E7_0" arrivalPos="560.39" arrivalSpeed="12.38" duration="188.00" routeLength="1348.22" waitingTime="60.00" waitingCount="2" stopTime="0.00" timeLoss="83.32" rerouteNo="1" devices="tripinfo_flow3.2 routing_flow3.2" vType="type1" speedFactor="0.94" vaporized=""/>
    <tripinfo id="flow19.1" depart="106.00" departLane="-E19_0" departPos="5.10" departSpeed="0.00" departDelay="0.00" arrival="205.00" arrivalLane="E7_0" arrivalPos="560.39" arrivalSpeed="11.99" duration="99.00" routeLength="1067.05" waitingTime="2.00" waitingCount="1" stopTime="0.00" timeLoss="11.64" rerouteNo="0" devices="tripinfo_flow19.1 routing_flow19.1" vType="type1" speedFactor="0.89" vaporized=""/>
    <tripinfo id="flow19.2" depart="130.00" departLane="-E19_0" departPos="5.10" departSpeed="0.00" departDelay="0.00" arrival="209.00" arrivalLane="E7_0" arrivalPos="560.39" arrivalSpeed="14.60" duration="79.00" routeLength="1067.05" waitingTime="0.00" waitingCount="0" stopTime="0.00" timeLoss="8.16" rerouteNo="0" devices="tripinfo_flow19.2 routing_flow19.2" vType="type1" speedFactor="1.10" vaporized=""/>
    <tripinfo id="flow25.0" depart="8.00" departLane="-E7_0" departPos="5.10" departSpeed="0.00" departDelay="0.00" arrival="221.00" arrivalLane="-E5_1" arrivalPos="175.40" arrivalSpeed="13.62" duration="213.00" routeLength="1341.75" waitingTime="106.00" waitingCount="1" stopTime="0.00" timeLoss="119.88" rerouteNo="1" devices="tripinfo_flow25.0 routing_flow25.0" vType="type1" speedFactor="1.05" vaporized=""/>
    <tripinfo id="flow1.7" depart="127.00" departLane="E5_0" departPos="5.10" departSpeed="0.00" departDelay="9.00" arrival="221.00" arrivalLane="E4_0" arrivalPos="61.38" arrivalSpeed="12.29" duration="94.00" routeLength="240.72" waitingTime="63.00" waitingCount="1" stopTime="0.00" timeLoss="75.54" rerouteNo="0" devices="tripinfo_flow1.7 routing_flow1.7" vType="type1" speedFactor="0.97" vaporized=""/>
    <tripinfo id="flow25.2" depart="16.00" departLane="-E7_0" departPos="5.10" departSpeed="0.00" departDelay="2.00" arrival="223.00" arrivalLane="-E5_1" arrivalPos="175.40" arrivalSpeed="15.10" duration="207.00" routeLength="1341.75" waitingTime="101.00" waitingCount="1" stopTime="0.00" timeLoss="119.37" rerouteNo="1" devices="tripinfo_flow25.2 routing_flow25.2" vType="type1" speedFactor="1.12" vaporized=""/>
    <tripinfo id="flow6.2" depart="29.00" departLane="E2_0" departPos="5.10" departSpeed="0.00" departDelay="0.00" arrival="225.00" arrivalLane="-E5_0" arrivalPos="175.40" arrivalSpeed="10.57" duration="196.00" routeLength="539.70" waitingTime="131.00" waitingCount="2" stopTime="0.00" timeLoss="148.05" rerouteNo="1" devices="tripinfo_flow6.2 routing_flow6.2" vType="type1" speedFactor="0.83" vaporized=""/>
    <tripinfo id="flow25.1" depart="13.00" departLane="-E7_0" departPos="5.10" departSpeed="0.00" departDelay="0.00" arrival="227.00" arrivalLane="-E5_0" arrivalPos="175.40" arrivalSpeed="13.20" duration="214.00" routeLength="1341.75" waitingTime="103.00" waitingCount="1" stopTime="0.00" timeLoss="120.82" rerouteNo="1" devices="tripinfo_flow25.1 routing_flow25.1" vType="type1" speedFactor="1.05" vaporized=""/>
    <tripinfo id="flow6.4" depart="70.00" departLane="E2_0" departPos="5.10" departSpeed="0.00" departDelay="0.00" arrival="227.00" arrivalLane="-E5_1" arrivalPos="175.40" arrivalSpeed="12.60" duration="157.00" routeLength="539.70" waitingTime="99.00" waitingCount="1" stopTime="0.00" timeLoss="113.80" rerouteNo="1" devices="tripinfo_flow6.4 routing_flow6.4" vType="type1" speedFactor="0.94" vaporized=""/>
    <tripinfo id="flow1.8" depart="139.00" departLane="E5_0" departPos="5.10" departSpeed="0.00" departDelay="9.00" arrival="227.00" arrivalLane="E4_0" arrivalPos="61.38" arrivalSpeed="15.17" duration="88.00" routeLength="240.72" waitingTime="56.00" waitingCount="1" stopTime="0.00" timeLoss="71.71" rerouteNo="0" devices="tripinfo_flow1.8 routing_flow1.8" vType="type1" speedFactor="1.10" vaporized=""/>
    <tripinfo id="flow25.4" depart="25.00" departLane="-E7_0" departPos="5.10" departSpeed="0.00" departDelay="2.00" arrival="228.00" arrivalLane="-E5_1" arrivalPos="175.40" arrivalSpeed="14.77" duration="203.00" routeLength="1341.75" waitingTime="91.00" waitingCount="1" stopTime="0.00" timeLoss="118.93" rerouteNo="1" devices="tripinfo_flow25.4 routing_flow25.4" vType="type1" speedFactor="1.16" vaporized=""/>
    <tripinfo id="flow6.5" depart="74.00" departLane="E2_0" departPos="5.10" departSpeed="0.00" departDelay="0.00" arrival="229.00" arrivalLane="-E5_0" arrivalPos="175.40" arrivalSpeed="12.51" duration="155.00" routeLength="539.70" waitingTime="97.00" waitingCount="1" stopTime="0.00" timeLoss="111.14" rerouteNo="1" devices="tripinfo_flow6.5 routing_flow6.5" vType="type1" speedFactor="0.91" vaporized=""/>
    <tripinfo id="flow11.6" depart="127.00" departLane="-E3_0" departPos="5.10" departSpeed="0.00" departDelay="0.00" arrival="231.00" arrivalLane="-E5_0" arrivalPos="175.40" arrivalSpeed="13.30" duration="104.00" routeLength="1268.98" waitingTime="2.00" waitingCount="1" stopTime="0.00" timeLoss="14.54" rerouteNo="0" devices="tripinfo_flow11.6 routing_flow11.6" vType="type1" speedFactor="1.03" vaporized=""/>
    <tripinfo id="flow25.3" depart="19.00" departLane="-E7_0" departPos="5.10" departSpeed="0.00" departDelay="1.00" arrival="233.00" arrivalLane="-E5_0" arrivalPos="175.40" arrivalSpeed="12.70" duration="214.00" routeLength="1341.75" waitingTime="93.00" waitingCount="1" stopTime="0.00" timeLoss="115.28" rerouteNo="1" devices="tripinfo_flow25.3 routing_flow25.3" vType="type1" speedFactor="0.99" vaporized=""/>
    <tripinfo id="flow1.9" depart="160.00" departLane="E5_0" departPos="5.10" departSpeed="0.00" departDelay="8.00" arrival="234.00" arrivalLane="E4_0" arrivalPos="61.38" arrivalSpeed="13.37" duration="74.00" routeLength="240.72" waitingTime="39.00" waitingCount="1" stopTime="0.00" timeLoss="55.86" rerouteNo="0" devices="tripinfo_flow1.9 routing_flow1.9" vType="type1" speedFactor="1.03" vaporized=""/>
    <tripinfo id="flow20.0" depart="29.00" departLane="-E19_0" departPos="5.10" departSpeed="0.00" departDelay="0.00" arrival="235.00" arrivalLane="-E5_0" arrivalPos="175.40" arrivalSpeed="11.53" duration="206.00" routeLength="1287.60" waitingTime="85.00" waitingCount="1" stopTime="0.00" timeLoss="104.94" rerouteNo="1" devices="tripinfo_flow20.0 routing_flow20.0" vType="type1" speedFactor="0.92" vaporized=""/>
    <tripinfo id="flow20.1" depart="32.00" departLane="-E19_0" departPos="5.10" departSpeed="0.00" departDelay="2.00" arrival="237.00" arrivalLane="-E5_0" arrivalPos="175.40" arrivalSpeed="11.99" duration="205.00" routeLength="1287.60" waitingTime="80.00" waitingCount="1" stopTime="0.00" timeLoss="105.17" rerouteNo="1" devices="tripinfo_flow20.1 routing_flow20.1" vType="type1" speedFactor="0.93" vaporized=""/>
    <tripinfo id="flow25.6" depart="31.00" departLane="-E7_0" departPos="5.10" departSpeed="0.00" departDelay="5.00" arrival="239.00" arrivalLane="-E5_0" arrivalPos="175.40" arrivalSpeed="12.47" duration="208.00" routeLength="1341.75" waitingTime="80.00" waitingCount="2" stopTime="0.00" timeLoss="107.63" rerouteNo="1" devices="tripinfo_flow25.6 routing_flow25.6" vType="type1" speedFactor="0.97" vaporized=""/>
    <tripinfo id="flow4.3" depart="100.00" departLane="E5_0" departPos="5.10" departSpeed="0.00" departDelay="10.00" arrival="239.00" arrivalLane="E15_0" arrivalPos="412.45" arrivalSpeed="13.23" duration="139.00" routeLength="1192.34" waitingTime="40.00" waitingCount="1" stopTime="0.00" timeLoss="54.89" rerouteNo="1" devices="tripinfo_flow4.3 routing_flow4.3" vType="type1" speedFactor="1.03" vaporized=""/>
    <tripinfo id="flow1.10" depart="178.00" departLane="E5_0" departPos="5.10" departSpeed="0.00" departDelay="17.00" arrival="240.00" arrivalLane="E4_0" arrivalPos="61.38" arrivalSpeed="14.76" duration="62.00" routeLength="240.72" waitingTime="28.00" waitingCount="1" stopTime="0.00" timeLoss="45.43" rerouteNo="0" devices="tripinfo_flow1.10 routing_flow1.10" vType="type1" speedFactor="1.11" vaporized=""/>
    <tripinfo id="flow25.7" depart="40.00" departLane="-E7_0" departPos="5.10" departSpeed="0.00" departDelay="5.00" arrival="241.00" arrivalLane="-E5_1" arrivalPos="175.40" arrivalSpeed="15.71" duration="201.00" routeLength="1341.75" waitingTime="76.00" waitingCount="1" stopTime="0.00" timeLoss="117.98" rerouteNo="1" devices="tripinfo_flow25.7 routing_flow25.7" vType="type1" speedFactor="1.17" vaporized=""/>
    <tripinfo id="flow11.7" depart="141.00" departLane="-E3_0" departPos="5.10" departSpeed="0.00" departDelay="0.00" arrival="241.00" arrivalLane="-E5_0" arrivalPos="175.40" arrivalSpeed="13.72" duration="100.00" routeLength="1268.98" waitingTime="0.00" waitingCount="0" stopTime="0.00" timeLoss="9.32" rerouteNo="0" devices="tripinfo_flow11.7 routing_flow11.7" vType="type1" speedFactor="1.02" vaporized=""/>
    <tripinfo id="flow18.0" depart="67.00" departLane="-E15_0" departPos="5.10" departSpeed="0.00" departDelay="0.00" arrival="242.00" arrivalLane="-E5_0" arrivalPos="175.40" arrivalSpeed="14.35" duration="175.00" routeLength="1200.87" waitingTime="66.00" waitingCount="1" stopTime="0.00" timeLoss="96.93" rerouteNo="1" devices="tripinfo_flow18.0 routing_flow18.0" vType="type1" speedFactor="1.12" vaporized=""/>
    <tripinfo id="flow1.11" depart="184.00" departLane="E5_0" departPos="5.10" departSpeed="0.00" departDelay="14.00" arrival="242.00" arrivalLane="E4_0" arrivalPos="61.38" arrivalSpeed="15.82" duration="58.00" routeLength="240.72" waitingTime="24.00" waitingCount="1" stopTime="0.00" timeLoss="41.98" rerouteNo="0" devices="tripinfo_flow1.11 routing_flow1.11" vType="type1" speedFactor="1.14" vaporized=""/>
    <tripinfo id="flow25.8" depart="52.00" departLane="-E7_0" departPos="5.10" departSpeed="0.00" departDelay="0.00" arrival="244.00" arrivalLane="-E5_0" arrivalPos="175.40" arrivalSpeed="13.69" duration="192.00" routeLength="1341.75" waitingTime="60.00" waitingCount="2" stopTime="0.00" timeLoss="94.38" rerouteNo="1" devices="tripinfo_flow25.8 routing_flow25.8" vType="type1" speedFactor="1.00" vaporized=""/>
    <tripinfo id="flow23.1" depart="127.00" departLane="-E7_0" departPos="5.10" departSpeed="0.00" departDelay="0.00" arrival="245.00" arrivalLane="E19_0" arrivalPos="500.91" arrivalSpeed="14.17" duration="118.00" routeLength="1072.94" waitingTime="28.00" waitingCount="1" stopTime="0.00" timeLoss="43.89" rerouteNo="0" devices="tripinfo_flow23.1 routing_flow23.1" vType="type1" speedFactor="1.06" vaporized=""/>
    <tripinfo id="flow3.4" depart="25.00" departLane="E5_0" departPos="5.10" departSpeed="0.00" departDelay="3.00" arrival="247.00" arrivalLane="E7_0" arrivalPos="560.39" arrivalSpeed="12.71" duration="222.00" routeLength="1348.22" waitingTime="96.00" waitingCount="3" stopTime="0.00" timeLoss="117.58" rerouteNo="1" devices="tripinfo_flow3.4 routing_flow3.4" vType="type1" speedFactor="0.94" vaporized=""/>
    <tripinfo id="flow25.9" depart="55.00" departLane="-E7_0" departPos="5.10" departSpeed="0.00" departDelay="1.00" arrival="247.00" arrivalLane="-E5_0" arrivalPos="175.40" arrivalSpeed="11.58" duration="192.00" routeLength="1341.75" waitingTime="56.00" waitingCount="2" stopTime="0.00" timeLoss="83.52" rerouteNo="1" devices="tripinfo_flow25.9 routing_flow25.9" vType="type1" speedFactor="0.90" vaporized=""/>
    <tripinfo id="flow1.12" depart="204.00" departLane="E5_0" departPos="5.10" departSpeed="0.00" departDelay="8.00" arrival="248.00" arrivalLane="E4_0" arrivalPos="61.38" arrivalSpeed="14.42" duration="44.00" routeLength="240.72" waitingTime="8.00" waitingCount="1" stopTime="0.00" timeLoss="27.42" rerouteNo="0" devices="tripinfo_flow1.12 routing_flow1.12" vType="type1" speedFactor="1.08" vaporized=""/>
    <tripinfo id="flow25.11" depart="64.00" departLane="-E7_0" departPos="5.10" departSpeed="0.00" departDelay="5.00" arrival="251.00" arrivalLane="-E5_0" arrivalPos="175.40" arrivalSpeed="13.21" duration="187.00" routeLength="1341.75" waitingTime="53.00" waitingCount="1" stopTime="0.00" timeLoss="88.80" rerouteNo="1" devices="tripinfo_flow25.11 routing_flow25.11" vType="type1" speedFactor="1.00" vaporized=""/>
    <tripinfo id="flow27.0" depart="22.00" departLane="-E7_0" departPos="5.10" departSpeed="0.00" departDelay="1.00" arrival="252.00" arrivalLane="E4_0" arrivalPos="61.38" arrivalSpeed="11.87" duration="230.00" routeLength="1232.26" waitingTime="114.00" waitingCount="2" stopTime="0.00" timeLoss="134.68" rerouteNo="1" devices="tripinfo_flow27.0 routing_flow27.0" vType="type1" speedFactor="0.94" vaporized=""/>
    <tripinfo id="flow25.12" depart="70.00" departLane="-E7_0" departPos="5.10" departSpeed="0.00" departDelay="8.00" arrival="255.00" arrivalLane="-E5_0" arrivalPos="175.40" arrivalSpeed="15.33" duration="185.00" routeLength="1341.75" waitingTime="52.00" waitingCount="2" stopTime="0.00" timeLoss="99.16" rerouteNo="1" devices="tripinfo_flow25.12 routing_flow25.12" vType="type1" speedFactor="1.14" vaporized=""/>
    <tripinfo id="flow27.1" depart="34.00" departLane="-E7_0" departPos="5.10" departSpeed="0.00" departDelay="4.00" arrival="256.00" arrivalLane="E4_0" arrivalPos="61.38" arrivalSpeed="16.13" duration="222.00" routeLength="1232.26" waitingTime="107.00" waitingCount="2" stopTime="0.00" timeLoss="145.14" rerouteNo="1" devices="tripinfo_flow27.1 routing_flow27.1" vType="type1" speedFactor="1.18" vaporized=""/>
    <tripinfo id="flow27.2" depart="37.00" departLane="-E7_0" departPos="5.10" departSpeed="0.00" departDelay="6.00" arrival="260.00" arrivalLane="E4_0" arrivalPos="61.38" arrivalSpeed="15.19" duration="223.00" routeLength="1232.26" waitingTime="105.00" waitingCount="2" stopTime="0.00" timeLoss="145.03" rerouteNo="1" devices="tripinfo_flow27.2 routing_flow27.2" vType="type1" speedFactor="1.15" vaporized=""/>
    <tripinfo id="flow27.3" depart="43.00" departLane="-E7_0" departPos="5.10" departSpeed="0.00" departDelay="0.00" arrival="262.00" arrivalLane="E4_0" arrivalPos="61.38" arrivalSpeed="14.42" duration="219.00" routeLength="1232.26" waitingTime="97.00" waitingCount="2" stopTime="0.00" timeLoss="137.59" rerouteNo="1" devices="tripinfo_flow27.3 routing_flow27.3" vType="type1" speedFactor="1.10" vaporized=""/>
    <tripinfo id="flow25.5" depart="28.00" departLane="-E7_0" departPos="5.10" departSpeed="0.00" departDelay="4.00" arrival="263.00" arrivalLane="-E5_0" arrivalPos="175.40" arrivalSpeed="13.36" duration="235.00" routeLength="1341.75" waitingTime="112.00" waitingCount="3" stopTime="0.00" timeLoss="138.64" rerouteNo="1" devices="tripinfo_flow25.5 routing_flow25.5" vType="type1" speedFactor="1.02" vaporized=""/>